REMARK SMILES CCc1nc(N)nc(N)c1-c1ccc(Cl)cc1
REMARK SMILES IDX 4 1 7 2 10 3 3 4 8 5 5 6 11 7 14 8 13 9 16 10 12 11 17 12
REMARK SMILES IDX 15 13 2 14 1 15 9 16 6 19
REMARK H PARENT 9 17 9 18 6 20 6 21
ROOT
ATOM      1  N   UNL     1      -2.721  -0.947   0.297  1.00  0.00    -0.218 NA
ATOM      2  N   UNL     1      -2.700   1.413  -0.191  1.00  0.00    -0.196 NA
ATOM      3  C   UNL     1      -0.625   0.213   0.045  1.00  0.00     0.046 A 
ATOM      4  C   UNL     1      -1.372  -0.924   0.284  1.00  0.00     0.056 A 
ATOM      5  C   UNL     1      -1.351   1.364  -0.189  1.00  0.00     0.137 A 
ATOM      6  C   UNL     1      -3.312   0.239   0.056  1.00  0.00     0.222 A 
ENDROOT
BRANCH   3   7
ATOM      7  C   UNL     1       0.822   0.188   0.041  1.00  0.00    -0.013 A 
ATOM      8  C   UNL     1       3.611   0.138   0.035  1.00  0.00     0.041 A 
ATOM      9  C   UNL     1       2.906  -0.094  -1.147  1.00  0.00     0.021 A 
ATOM     10  C   UNL     1       2.921   0.394   1.219  1.00  0.00     0.021 A 
ATOM     11  C   UNL     1       1.512  -0.069  -1.143  1.00  0.00     0.010 A 
ATOM     12  C   UNL     1       1.526   0.419   1.223  1.00  0.00     0.010 A 
ATOM     13  Cl  UNL     1       5.331   0.105   0.031  1.00  0.00    -0.084 Cl
ENDBRANCH   3   7
BRANCH   4  14
ATOM     14  C   UNL     1      -0.709  -2.237   0.552  1.00  0.00     0.054 C 
ATOM     15  C   UNL     1      -0.463  -3.028  -0.730  1.00  0.00     0.011 C 
ENDBRANCH   4  14
BRANCH   5  16
ATOM     16  N   UNL     1      -0.653   2.571  -0.443  1.00  0.00    -0.383 N 
ATOM     17  H   UNL     1       0.247   2.717  -0.004  1.00  0.00     0.158 HD
ATOM     18  H   UNL     1      -1.222   3.390  -0.619  1.00  0.00     0.158 HD
ENDBRANCH   5  16
BRANCH   6  19
ATOM     19  N   UNL     1      -4.723   0.253   0.061  1.00  0.00    -0.368 N 
ATOM     20  H   UNL     1      -5.228  -0.604   0.241  1.00  0.00     0.159 HD
ATOM     21  H   UNL     1      -5.213   1.120  -0.115  1.00  0.00     0.159 HD
ENDBRANCH   6  19
TORSDOF 4
