MODEL 1
REMARK VINA RESULT:      -4.8      0.000      0.000
REMARK SMILES CCc1nc(N)nc(N)c1-c1ccc(Cl)cc1
REMARK SMILES IDX 4 1 7 2 10 3 3 4 8 5 5 6 11 7 14 8 13 9 16 10 12 11 17 12
REMARK SMILES IDX 15 13 2 14 1 15 9 16 6 19
REMARK H PARENT 9 17 9 18 6 20 6 21
ROOT
ATOM      1  N   UNL     1     -49.131  15.821   0.322  1.00  0.00    -0.218 NA
ATOM      2  N   UNL     1     -47.446  16.976   1.601  1.00  0.00    -0.196 NA
ATOM      3  C   UNL     1     -46.801  15.318  -0.024  1.00  0.00     0.046 A 
ATOM      4  C   UNL     1     -48.144  15.141  -0.296  1.00  0.00     0.056 A 
ATOM      5  C   UNL     1     -46.509  16.259   0.944  1.00  0.00     0.137 A 
ATOM      6  C   UNL     1     -48.718  16.709   1.246  1.00  0.00     0.222 A 
ENDROOT
BRANCH   3   7
ATOM      7  C   UNL     1     -45.777  14.564  -0.714  1.00  0.00    -0.013 A 
ATOM      8  C   UNL     1     -43.804  13.108  -2.044  1.00  0.00     0.041 A 
ATOM      9  C   UNL     1     -44.229  14.336  -2.554  1.00  0.00     0.021 A 
ATOM     10  C   UNL     1     -44.367  12.609  -0.870  1.00  0.00     0.021 A 
ATOM     11  C   UNL     1     -45.215  15.063  -1.888  1.00  0.00     0.010 A 
ATOM     12  C   UNL     1     -45.354  13.336  -0.204  1.00  0.00     0.010 A 
ATOM     13  Cl  UNL     1     -42.589  12.210  -2.866  1.00  0.00    -0.084 Cl
ENDBRANCH   3   7
BRANCH   4  14
ATOM     14  C   UNL     1     -48.596  14.152  -1.322  1.00  0.00     0.054 C 
ATOM     15  C   UNL     1     -49.101  12.858  -0.689  1.00  0.00     0.011 C 
ENDBRANCH   4  14
BRANCH   5  16
ATOM     16  N   UNL     1     -45.152  16.497   1.276  1.00  0.00    -0.383 N 
ATOM     17  H   UNL     1     -44.699  15.888   1.945  1.00  0.00     0.158 HD
ATOM     18  H   UNL     1     -44.845  17.462   1.244  1.00  0.00     0.158 HD
ENDBRANCH   5  16
BRANCH   6  19
ATOM     19  N   UNL     1     -49.724  17.441   1.913  1.00  0.00    -0.368 N 
ATOM     20  H   UNL     1     -49.851  17.317   2.908  1.00  0.00     0.159 HD
ATOM     21  H   UNL     1     -50.305  18.081   1.388  1.00  0.00     0.159 HD
ENDBRANCH   6  19
TORSDOF 4
ENDMDL
MODEL 2
REMARK VINA RESULT:      -4.8      0.026      1.172
REMARK SMILES CCc1nc(N)nc(N)c1-c1ccc(Cl)cc1
REMARK SMILES IDX 4 1 7 2 10 3 3 4 8 5 5 6 11 7 14 8 13 9 16 10 12 11 17 12
REMARK SMILES IDX 15 13 2 14 1 15 9 16 6 19
REMARK H PARENT 9 17 9 18 6 20 6 21
ROOT
ATOM      1  N   UNL     1     -49.134  15.829   0.321  1.00  0.00    -0.218 NA
ATOM      2  N   UNL     1     -47.443  16.974   1.602  1.00  0.00    -0.196 NA
ATOM      3  C   UNL     1     -46.805  15.323  -0.032  1.00  0.00     0.046 A 
ATOM      4  C   UNL     1     -48.149  15.149  -0.302  1.00  0.00     0.056 A 
ATOM      5  C   UNL     1     -46.509  16.259   0.939  1.00  0.00     0.137 A 
ATOM      6  C   UNL     1     -48.716  16.712   1.249  1.00  0.00     0.222 A 
ENDROOT
BRANCH   3   7
ATOM      7  C   UNL     1     -45.784  14.570  -0.728  1.00  0.00    -0.013 A 
ATOM      8  C   UNL     1     -43.814  13.120  -2.069  1.00  0.00     0.041 A 
ATOM      9  C   UNL     1     -44.361  12.624  -0.884  1.00  0.00     0.021 A 
ATOM     10  C   UNL     1     -44.252  14.341  -2.581  1.00  0.00     0.021 A 
ATOM     11  C   UNL     1     -45.345  13.350  -0.215  1.00  0.00     0.010 A 
ATOM     12  C   UNL     1     -45.237  15.067  -1.911  1.00  0.00     0.010 A 
ATOM     13  Cl  UNL     1     -42.597  12.227  -2.894  1.00  0.00    -0.084 Cl
ENDBRANCH   3   7
BRANCH   4  14
ATOM     14  C   UNL     1     -48.605  14.166  -1.332  1.00  0.00     0.054 C 
ATOM     15  C   UNL     1     -49.160  12.891  -0.702  1.00  0.00     0.011 C 
ENDBRANCH   4  14
BRANCH   5  16
ATOM     16  N   UNL     1     -45.151  16.493   1.270  1.00  0.00    -0.383 N 
ATOM     17  H   UNL     1     -44.668  15.822   1.854  1.00  0.00     0.158 HD
ATOM     18  H   UNL     1     -44.868  17.462   1.344  1.00  0.00     0.158 HD
ENDBRANCH   5  16
BRANCH   6  19
ATOM     19  N   UNL     1     -49.719  17.442   1.921  1.00  0.00    -0.368 N 
ATOM     20  H   UNL     1     -50.221  18.168   1.428  1.00  0.00     0.159 HD
ATOM     21  H   UNL     1     -49.926  17.230   2.888  1.00  0.00     0.159 HD
ENDBRANCH   6  19
TORSDOF 4
ENDMDL
MODEL 3
REMARK VINA RESULT:      -4.7      0.916      2.615
REMARK SMILES CCc1nc(N)nc(N)c1-c1ccc(Cl)cc1
REMARK SMILES IDX 4 1 7 2 10 3 3 4 8 5 5 6 11 7 14 8 13 9 16 10 12 11 17 12
REMARK SMILES IDX 15 13 2 14 1 15 9 16 6 19
REMARK H PARENT 9 17 9 18 6 20 6 21
ROOT
ATOM      1  N   UNL     1     -47.426  16.882   1.634  1.00  0.00    -0.218 NA
ATOM      2  N   UNL     1     -49.132  15.860   0.274  1.00  0.00    -0.196 NA
ATOM      3  C   UNL     1     -46.822  15.250  -0.032  1.00  0.00     0.046 A 
ATOM      4  C   UNL     1     -46.509  16.141   0.976  1.00  0.00     0.056 A 
ATOM      5  C   UNL     1     -48.163  15.150  -0.343  1.00  0.00     0.137 A 
ATOM      6  C   UNL     1     -48.699  16.694   1.238  1.00  0.00     0.222 A 
ENDROOT
BRANCH   3   7
ATOM      7  C   UNL     1     -45.803  14.477  -0.709  1.00  0.00    -0.013 A 
ATOM      8  C   UNL     1     -43.841  12.984  -2.014  1.00  0.00     0.041 A 
ATOM      9  C   UNL     1     -44.233  14.222  -2.526  1.00  0.00     0.021 A 
ATOM     10  C   UNL     1     -44.431  12.493  -0.851  1.00  0.00     0.021 A 
ATOM     11  C   UNL     1     -45.213  14.967  -1.873  1.00  0.00     0.010 A 
ATOM     12  C   UNL     1     -45.413  13.239  -0.197  1.00  0.00     0.010 A 
ATOM     13  Cl  UNL     1     -42.632  12.063  -2.821  1.00  0.00    -0.084 Cl
ENDBRANCH   3   7
BRANCH   4  14
ATOM     14  C   UNL     1     -45.093  16.345   1.410  1.00  0.00     0.054 C 
ATOM     15  C   UNL     1     -45.002  16.882   2.836  1.00  0.00     0.011 C 
ENDBRANCH   4  14
BRANCH   5  16
ATOM     16  N   UNL     1     -48.561  14.255  -1.367  1.00  0.00    -0.383 N 
ATOM     17  H   UNL     1     -48.177  14.373  -2.296  1.00  0.00     0.158 HD
ATOM     18  H   UNL     1     -49.499  13.880  -1.297  1.00  0.00     0.158 HD
ENDBRANCH   5  16
BRANCH   6  19
ATOM     19  N   UNL     1     -49.685  17.452   1.904  1.00  0.00    -0.368 N 
ATOM     20  H   UNL     1     -49.691  18.458   1.805  1.00  0.00     0.159 HD
ATOM     21  H   UNL     1     -50.375  16.980   2.474  1.00  0.00     0.159 HD
ENDBRANCH   6  19
TORSDOF 4
ENDMDL
MODEL 4
REMARK VINA RESULT:      -4.7      0.914      2.864
REMARK SMILES CCc1nc(N)nc(N)c1-c1ccc(Cl)cc1
REMARK SMILES IDX 4 1 7 2 10 3 3 4 8 5 5 6 11 7 14 8 13 9 16 10 12 11 17 12
REMARK SMILES IDX 15 13 2 14 1 15 9 16 6 19
REMARK H PARENT 9 17 9 18 6 20 6 21
ROOT
ATOM      1  N   UNL     1     -47.422  16.876   1.637  1.00  0.00    -0.218 NA
ATOM      2  N   UNL     1     -49.125  15.876   0.256  1.00  0.00    -0.196 NA
ATOM      3  C   UNL     1     -46.814  15.276  -0.059  1.00  0.00     0.046 A 
ATOM      4  C   UNL     1     -46.504  16.149   0.966  1.00  0.00     0.056 A 
ATOM      5  C   UNL     1     -48.155  15.179  -0.373  1.00  0.00     0.137 A 
ATOM      6  C   UNL     1     -48.694  16.694   1.235  1.00  0.00     0.222 A 
ENDROOT
BRANCH   3   7
ATOM      7  C   UNL     1     -45.793  14.517  -0.749  1.00  0.00    -0.013 A 
ATOM      8  C   UNL     1     -43.824  13.056  -2.079  1.00  0.00     0.041 A 
ATOM      9  C   UNL     1     -44.423  12.536  -0.930  1.00  0.00     0.021 A 
ATOM     10  C   UNL     1     -44.209  14.306  -2.561  1.00  0.00     0.021 A 
ATOM     11  C   UNL     1     -45.407  13.267  -0.266  1.00  0.00     0.010 A 
ATOM     12  C   UNL     1     -45.194  15.038  -1.896  1.00  0.00     0.010 A 
ATOM     13  Cl  UNL     1     -42.608  12.155  -2.897  1.00  0.00    -0.084 Cl
ENDBRANCH   3   7
BRANCH   4  14
ATOM     14  C   UNL     1     -45.088  16.347   1.405  1.00  0.00     0.054 C 
ATOM     15  C   UNL     1     -45.000  16.885   2.831  1.00  0.00     0.011 C 
ENDBRANCH   4  14
BRANCH   5  16
ATOM     16  N   UNL     1     -48.550  14.302  -1.414  1.00  0.00    -0.383 N 
ATOM     17  H   UNL     1     -48.896  14.696  -2.279  1.00  0.00     0.158 HD
ATOM     18  H   UNL     1     -48.926  13.407  -1.128  1.00  0.00     0.158 HD
ENDBRANCH   5  16
BRANCH   6  19
ATOM     19  N   UNL     1     -49.682  17.437   1.915  1.00  0.00    -0.368 N 
ATOM     20  H   UNL     1     -50.258  16.981   2.610  1.00  0.00     0.159 HD
ATOM     21  H   UNL     1     -49.803  18.418   1.700  1.00  0.00     0.159 HD
ENDBRANCH   6  19
TORSDOF 4
ENDMDL
MODEL 5
REMARK VINA RESULT:      -4.5      4.005      5.970
REMARK SMILES CCc1nc(N)nc(N)c1-c1ccc(Cl)cc1
REMARK SMILES IDX 4 1 7 2 10 3 3 4 8 5 5 6 11 7 14 8 13 9 16 10 12 11 17 12
REMARK SMILES IDX 15 13 2 14 1 15 9 16 6 19
REMARK H PARENT 9 17 9 18 6 20 6 21
ROOT
ATOM      1  N   UNL     1     -47.039  15.225  -0.120  1.00  0.00    -0.218 NA
ATOM      2  N   UNL     1     -47.466  16.963   1.494  1.00  0.00    -0.196 NA
ATOM      3  C   UNL     1     -49.304  15.770   0.494  1.00  0.00     0.046 A 
ATOM      4  C   UNL     1     -48.372  15.042  -0.221  1.00  0.00     0.056 A 
ATOM      5  C   UNL     1     -48.787  16.726   1.345  1.00  0.00     0.137 A 
ATOM      6  C   UNL     1     -46.661  16.188   0.742  1.00  0.00     0.222 A 
ENDROOT
BRANCH   3   7
ATOM      7  C   UNL     1     -50.725  15.537   0.352  1.00  0.00    -0.013 A 
ATOM      8  C   UNL     1     -53.465  15.087   0.082  1.00  0.00     0.041 A 
ATOM      9  C   UNL     1     -52.834  16.048  -0.709  1.00  0.00     0.021 A 
ATOM     10  C   UNL     1     -52.726  14.352   1.008  1.00  0.00     0.021 A 
ATOM     11  C   UNL     1     -51.464  16.272  -0.573  1.00  0.00     0.010 A 
ATOM     12  C   UNL     1     -51.356  14.577   1.144  1.00  0.00     0.010 A 
ATOM     13  Cl  UNL     1     -55.155  14.812  -0.083  1.00  0.00    -0.084 Cl
ENDBRANCH   3   7
BRANCH   4  14
ATOM     14  C   UNL     1     -48.799  13.976  -1.178  1.00  0.00     0.054 C 
ATOM     15  C   UNL     1     -48.621  12.576  -0.595  1.00  0.00     0.011 C 
ENDBRANCH   4  14
BRANCH   5  16
ATOM     16  N   UNL     1     -49.682  17.513   2.112  1.00  0.00    -0.383 N 
ATOM     17  H   UNL     1     -50.678  17.400   1.969  1.00  0.00     0.158 HD
ATOM     18  H   UNL     1     -49.353  18.431   2.383  1.00  0.00     0.158 HD
ENDBRANCH   5  16
BRANCH   6  19
ATOM     19  N   UNL     1     -45.273  16.407   0.874  1.00  0.00    -0.368 N 
ATOM     20  H   UNL     1     -44.943  17.177   1.440  1.00  0.00     0.159 HD
ATOM     21  H   UNL     1     -44.625  15.792   0.401  1.00  0.00     0.159 HD
ENDBRANCH   6  19
TORSDOF 4
ENDMDL
MODEL 6
REMARK VINA RESULT:      -4.5      4.039      6.125
REMARK SMILES CCc1nc(N)nc(N)c1-c1ccc(Cl)cc1
REMARK SMILES IDX 4 1 7 2 10 3 3 4 8 5 5 6 11 7 14 8 13 9 16 10 12 11 17 12
REMARK SMILES IDX 15 13 2 14 1 15 9 16 6 19
REMARK H PARENT 9 17 9 18 6 20 6 21
ROOT
ATOM      1  N   UNL     1     -47.115  15.220  -0.147  1.00  0.00    -0.218 NA
ATOM      2  N   UNL     1     -47.525  16.952   1.477  1.00  0.00    -0.196 NA
ATOM      3  C   UNL     1     -49.373  15.759   0.494  1.00  0.00     0.046 A 
ATOM      4  C   UNL     1     -48.449  15.035  -0.232  1.00  0.00     0.056 A 
ATOM      5  C   UNL     1     -48.847  16.714   1.342  1.00  0.00     0.137 A 
ATOM      6  C   UNL     1     -46.728  16.181   0.713  1.00  0.00     0.222 A 
ENDROOT
BRANCH   3   7
ATOM      7  C   UNL     1     -50.795  15.524   0.369  1.00  0.00    -0.013 A 
ATOM      8  C   UNL     1     -53.537  15.070   0.126  1.00  0.00     0.041 A 
ATOM      9  C   UNL     1     -52.787  14.336   1.046  1.00  0.00     0.021 A 
ATOM     10  C   UNL     1     -52.916  16.030  -0.672  1.00  0.00     0.021 A 
ATOM     11  C   UNL     1     -51.416  14.564   1.166  1.00  0.00     0.010 A 
ATOM     12  C   UNL     1     -51.545  16.258  -0.551  1.00  0.00     0.010 A 
ATOM     13  Cl  UNL     1     -55.227  14.788  -0.025  1.00  0.00    -0.084 Cl
ENDBRANCH   3   7
BRANCH   4  14
ATOM     14  C   UNL     1     -48.885  13.970  -1.187  1.00  0.00     0.054 C 
ATOM     15  C   UNL     1     -48.691  12.569  -0.613  1.00  0.00     0.011 C 
ENDBRANCH   4  14
BRANCH   5  16
ATOM     16  N   UNL     1     -49.735  17.497   2.122  1.00  0.00    -0.383 N 
ATOM     17  H   UNL     1     -49.401  17.898   2.989  1.00  0.00     0.158 HD
ATOM     18  H   UNL     1     -50.715  17.247   2.073  1.00  0.00     0.158 HD
ENDBRANCH   5  16
BRANCH   6  19
ATOM     19  N   UNL     1     -45.339  16.402   0.829  1.00  0.00    -0.368 N 
ATOM     20  H   UNL     1     -44.927  17.213   0.388  1.00  0.00     0.159 HD
ATOM     21  H   UNL     1     -44.773  15.748   1.352  1.00  0.00     0.159 HD
ENDBRANCH   6  19
TORSDOF 4
ENDMDL
MODEL 7
REMARK VINA RESULT:      -4.5      0.965      1.064
REMARK SMILES CCc1nc(N)nc(N)c1-c1ccc(Cl)cc1
REMARK SMILES IDX 4 1 7 2 10 3 3 4 8 5 5 6 11 7 14 8 13 9 16 10 12 11 17 12
REMARK SMILES IDX 15 13 2 14 1 15 9 16 6 19
REMARK H PARENT 9 17 9 18 6 20 6 21
ROOT
ATOM      1  N   UNL     1     -50.073  15.569   0.374  1.00  0.00    -0.218 NA
ATOM      2  N   UNL     1     -48.692  16.941   1.793  1.00  0.00    -0.196 NA
ATOM      3  C   UNL     1     -47.681  15.573   0.088  1.00  0.00     0.046 A 
ATOM      4  C   UNL     1     -48.952  15.149  -0.249  1.00  0.00     0.056 A 
ATOM      5  C   UNL     1     -47.612  16.480   1.127  1.00  0.00     0.137 A 
ATOM      6  C   UNL     1     -49.873  16.451   1.371  1.00  0.00     0.222 A 
ENDROOT
BRANCH   3   7
ATOM      7  C   UNL     1     -46.507  15.095  -0.610  1.00  0.00    -0.013 A 
ATOM      8  C   UNL     1     -44.246  14.170  -1.956  1.00  0.00     0.041 A 
ATOM      9  C   UNL     1     -44.884  15.336  -2.382  1.00  0.00     0.021 A 
ATOM     10  C   UNL     1     -44.740  13.466  -0.858  1.00  0.00     0.021 A 
ATOM     11  C   UNL     1     -46.014  15.797  -1.709  1.00  0.00     0.010 A 
ATOM     12  C   UNL     1     -45.871  13.928  -0.185  1.00  0.00     0.010 A 
ATOM     13  Cl  UNL     1     -42.853  13.599  -2.788  1.00  0.00    -0.084 Cl
ENDBRANCH   3   7
BRANCH   4  14
ATOM     14  C   UNL     1     -49.166  14.168  -1.356  1.00  0.00     0.054 C 
ATOM     15  C   UNL     1     -49.440  12.761  -0.832  1.00  0.00     0.011 C 
ENDBRANCH   4  14
BRANCH   5  16
ATOM     16  N   UNL     1     -46.341  16.961   1.529  1.00  0.00    -0.383 N 
ATOM     17  H   UNL     1     -46.158  17.955   1.481  1.00  0.00     0.158 HD
ATOM     18  H   UNL     1     -45.558  16.337   1.382  1.00  0.00     0.158 HD
ENDBRANCH   5  16
BRANCH   6  19
ATOM     19  N   UNL     1     -51.023  16.913   2.045  1.00  0.00    -0.368 N 
ATOM     20  H   UNL     1     -51.048  17.861   2.394  1.00  0.00     0.159 HD
ATOM     21  H   UNL     1     -51.810  16.290   2.171  1.00  0.00     0.159 HD
ENDBRANCH   6  19
TORSDOF 4
ENDMDL
MODEL 8
REMARK VINA RESULT:      -4.5      0.950      1.544
REMARK SMILES CCc1nc(N)nc(N)c1-c1ccc(Cl)cc1
REMARK SMILES IDX 4 1 7 2 10 3 3 4 8 5 5 6 11 7 14 8 13 9 16 10 12 11 17 12
REMARK SMILES IDX 15 13 2 14 1 15 9 16 6 19
REMARK H PARENT 9 17 9 18 6 20 6 21
ROOT
ATOM      1  N   UNL     1     -49.966  15.595   0.393  1.00  0.00    -0.218 NA
ATOM      2  N   UNL     1     -48.598  17.065   1.726  1.00  0.00    -0.196 NA
ATOM      3  C   UNL     1     -47.579  15.640   0.072  1.00  0.00     0.046 A 
ATOM      4  C   UNL     1     -48.844  15.172  -0.226  1.00  0.00     0.056 A 
ATOM      5  C   UNL     1     -47.517  16.596   1.067  1.00  0.00     0.137 A 
ATOM      6  C   UNL     1     -49.773  16.528   1.344  1.00  0.00     0.222 A 
ENDROOT
BRANCH   3   7
ATOM      7  C   UNL     1     -46.404  15.156  -0.619  1.00  0.00    -0.013 A 
ATOM      8  C   UNL     1     -44.137  14.224  -1.952  1.00  0.00     0.041 A 
ATOM      9  C   UNL     1     -44.603  13.558  -0.817  1.00  0.00     0.021 A 
ATOM     10  C   UNL     1     -44.805  15.355  -2.420  1.00  0.00     0.021 A 
ATOM     11  C   UNL     1     -45.736  14.025  -0.151  1.00  0.00     0.010 A 
ATOM     12  C   UNL     1     -45.939  15.822  -1.754  1.00  0.00     0.010 A 
ATOM     13  Cl  UNL     1     -42.739  13.649  -2.772  1.00  0.00    -0.084 Cl
ENDBRANCH   3   7
BRANCH   4  14
ATOM     14  C   UNL     1     -49.050  14.135  -1.283  1.00  0.00     0.054 C 
ATOM     15  C   UNL     1     -49.256  12.744  -0.690  1.00  0.00     0.011 C 
ENDBRANCH   4  14
BRANCH   5  16
ATOM     16  N   UNL     1     -46.252  17.125   1.427  1.00  0.00    -0.383 N 
ATOM     17  H   UNL     1     -45.421  16.741   0.996  1.00  0.00     0.158 HD
ATOM     18  H   UNL     1     -46.165  17.476   2.373  1.00  0.00     0.158 HD
ENDBRANCH   5  16
BRANCH   6  19
ATOM     19  N   UNL     1     -50.925  16.995   2.012  1.00  0.00    -0.368 N 
ATOM     20  H   UNL     1     -51.773  16.446   1.984  1.00  0.00     0.159 HD
ATOM     21  H   UNL     1     -50.889  17.874   2.512  1.00  0.00     0.159 HD
ENDBRANCH   6  19
TORSDOF 4
ENDMDL
MODEL 9
REMARK VINA RESULT:      -4.3      1.506      2.790
REMARK SMILES CCc1nc(N)nc(N)c1-c1ccc(Cl)cc1
REMARK SMILES IDX 4 1 7 2 10 3 3 4 8 5 5 6 11 7 14 8 13 9 16 10 12 11 17 12
REMARK SMILES IDX 15 13 2 14 1 15 9 16 6 19
REMARK H PARENT 9 17 9 18 6 20 6 21
ROOT
ATOM      1  N   UNL     1     -47.846  16.797   1.418  1.00  0.00    -0.218 NA
ATOM      2  N   UNL     1     -49.885  15.809   0.596  1.00  0.00    -0.196 NA
ATOM      3  C   UNL     1     -47.753  14.978  -0.158  1.00  0.00     0.046 A 
ATOM      4  C   UNL     1     -47.158  15.924   0.653  1.00  0.00     0.056 A 
ATOM      5  C   UNL     1     -49.134  14.966  -0.145  1.00  0.00     0.137 A 
ATOM      6  C   UNL     1     -49.186  16.686   1.342  1.00  0.00     0.222 A 
ENDROOT
BRANCH   3   7
ATOM      7  C   UNL     1     -46.972  14.062  -0.962  1.00  0.00    -0.013 A 
ATOM      8  C   UNL     1     -45.468  12.296  -2.511  1.00  0.00     0.041 A 
ATOM      9  C   UNL     1     -45.859  13.528  -3.037  1.00  0.00     0.021 A 
ATOM     10  C   UNL     1     -45.831  11.948  -1.210  1.00  0.00     0.021 A 
ATOM     11  C   UNL     1     -46.611  14.410  -2.262  1.00  0.00     0.010 A 
ATOM     12  C   UNL     1     -46.583  12.830  -0.435  1.00  0.00     0.010 A 
ATOM     13  Cl  UNL     1     -44.543  11.206  -3.467  1.00  0.00    -0.084 Cl
ENDBRANCH   3   7
BRANCH   4  14
ATOM     14  C   UNL     1     -45.670  16.043   0.731  1.00  0.00     0.054 C 
ATOM     15  C   UNL     1     -45.201  16.484   2.115  1.00  0.00     0.011 C 
ENDBRANCH   4  14
BRANCH   5  16
ATOM     16  N   UNL     1     -49.816  14.021  -0.951  1.00  0.00    -0.383 N 
ATOM     17  H   UNL     1     -50.351  13.290  -0.501  1.00  0.00     0.158 HD
ATOM     18  H   UNL     1     -49.390  13.802  -1.844  1.00  0.00     0.158 HD
ENDBRANCH   5  16
BRANCH   6  19
ATOM     19  N   UNL     1     -49.939  17.582   2.130  1.00  0.00    -0.368 N 
ATOM     20  H   UNL     1     -49.462  18.291   2.670  1.00  0.00     0.159 HD
ATOM     21  H   UNL     1     -50.947  17.505   2.146  1.00  0.00     0.159 HD
ENDBRANCH   6  19
TORSDOF 4
ENDMDL
