MODEL 1
REMARK VINA RESULT:     0.000      0.000      0.000
REMARK INTER + INTRA:          -0.419
REMARK INTER:                   0.000
REMARK INTRA:                  -0.419
REMARK UNBOUND:                -0.419
REMARK SMILES CCc1nc(N)nc(N)c1-c1ccc(Cl)cc1
REMARK SMILES IDX 4 1 7 2 10 3 3 4 8 5 5 6 11 7 14 8 13 9 16 10 12 11 17 12
REMARK SMILES IDX 15 13 2 14 1 15 9 16 6 19
REMARK H PARENT 9 17 9 18 6 20 6 21
ROOT
ATOM      1  N   UNL     1      27.407   8.881   3.638  1.00  0.00    -0.218 NA
ATOM      2  N   UNL     1      29.408   8.587   2.328  1.00  0.00    -0.196 NA
ATOM      3  C   UNL     1      28.299  10.725   2.370  1.00  0.00     0.046 A 
ATOM      4  C   UNL     1      27.368  10.164   3.222  1.00  0.00     0.056 A 
ATOM      5  C   UNL     1      29.307   9.880   1.951  1.00  0.00     0.137 A 
ATOM      6  C   UNL     1      28.439   8.160   3.159  1.00  0.00     0.222 A 
ENDROOT
BRANCH   3   7
ATOM      7  C   UNL     1      28.214  12.107   1.951  1.00  0.00    -0.013 A 
ATOM      8  C   UNL     1      28.049  14.772   1.143  1.00  0.00     0.041 A 
ATOM      9  C   UNL     1      28.761  14.435   2.295  1.00  0.00     0.021 A 
ATOM     10  C   UNL     1      27.420  13.777   0.397  1.00  0.00     0.021 A 
ATOM     11  C   UNL     1      28.843  13.102   2.698  1.00  0.00     0.010 A 
ATOM     12  C   UNL     1      27.502  12.444   0.800  1.00  0.00     0.010 A 
ATOM     13  Cl  UNL     1      27.946  16.416   0.647  1.00  0.00    -0.084 Cl
ENDBRANCH   3   7
BRANCH   4  14
ATOM     14  C   UNL     1      26.224  10.971   3.749  1.00  0.00     0.054 C 
ATOM     15  C   UNL     1      24.921  10.665   3.016  1.00  0.00     0.011 C 
ENDBRANCH   4  14
BRANCH   5  16
ATOM     16  N   UNL     1      30.301  10.384   1.075  1.00  0.00    -0.383 N 
ATOM     17  H   UNL     1      31.265  10.391   1.382  1.00  0.00     0.158 HD
ATOM     18  H   UNL     1      30.010  11.119   0.442  1.00  0.00     0.158 HD
ENDBRANCH   5  16
BRANCH   6  19
ATOM     19  N   UNL     1      28.513   6.813   3.574  1.00  0.00    -0.368 N 
ATOM     20  H   UNL     1      27.985   6.512   4.382  1.00  0.00     0.159 HD
ATOM     21  H   UNL     1      29.094   6.165   3.060  1.00  0.00     0.159 HD
ENDBRANCH   6  19
TORSDOF 4
ENDMDL
MODEL 2
REMARK VINA RESULT:     0.000      2.389      2.725
REMARK INTER + INTRA:          -0.419
REMARK INTER:                   0.000
REMARK INTRA:                  -0.419
REMARK UNBOUND:                -0.419
REMARK SMILES CCc1nc(N)nc(N)c1-c1ccc(Cl)cc1
REMARK SMILES IDX 4 1 7 2 10 3 3 4 8 5 5 6 11 7 14 8 13 9 16 10 12 11 17 12
REMARK SMILES IDX 15 13 2 14 1 15 9 16 6 19
REMARK H PARENT 9 17 9 18 6 20 6 21
ROOT
ATOM      1  N   UNL     1      25.854   7.836   3.587  1.00  0.00    -0.218 NA
ATOM      2  N   UNL     1      27.280   7.838   1.644  1.00  0.00    -0.196 NA
ATOM      3  C   UNL     1      25.993   9.798   2.195  1.00  0.00     0.046 A 
ATOM      4  C   UNL     1      25.505   9.104   3.286  1.00  0.00     0.056 A 
ATOM      5  C   UNL     1      26.887   9.106   1.402  1.00  0.00     0.137 A 
ATOM      6  C   UNL     1      26.732   7.272   2.736  1.00  0.00     0.222 A 
ENDROOT
BRANCH   3   7
ATOM      7  C   UNL     1      25.588  11.158   1.913  1.00  0.00    -0.013 A 
ATOM      8  C   UNL     1      24.806  13.780   1.370  1.00  0.00     0.041 A 
ATOM      9  C   UNL     1      25.918  13.536   2.178  1.00  0.00     0.021 A 
ATOM     10  C   UNL     1      24.086  12.713   0.835  1.00  0.00     0.021 A 
ATOM     11  C   UNL     1      26.308  12.225   2.449  1.00  0.00     0.010 A 
ATOM     12  C   UNL     1      24.477  11.401   1.106  1.00  0.00     0.010 A 
ATOM     13  Cl  UNL     1      24.323  15.397   1.037  1.00  0.00    -0.084 Cl
ENDBRANCH   3   7
BRANCH   4  14
ATOM     14  C   UNL     1      24.529   9.738   4.225  1.00  0.00     0.054 C 
ATOM     15  C   UNL     1      23.101   9.258   3.979  1.00  0.00     0.011 C 
ENDBRANCH   4  14
BRANCH   5  16
ATOM     16  N   UNL     1      27.431   9.753   0.264  1.00  0.00    -0.383 N 
ATOM     17  H   UNL     1      27.634   9.203  -0.561  1.00  0.00     0.158 HD
ATOM     18  H   UNL     1      28.023  10.555   0.444  1.00  0.00     0.158 HD
ENDBRANCH   5  16
BRANCH   6  19
ATOM     19  N   UNL     1      27.121   5.945   3.020  1.00  0.00    -0.368 N 
ATOM     20  H   UNL     1      26.957   5.566   3.943  1.00  0.00     0.159 HD
ATOM     21  H   UNL     1      27.560   5.389   2.298  1.00  0.00     0.159 HD
ENDBRANCH   6  19
TORSDOF 4
ENDMDL
MODEL 3
REMARK VINA RESULT:     0.000      6.609      7.747
REMARK INTER + INTRA:          -0.419
REMARK INTER:                   0.000
REMARK INTRA:                  -0.419
REMARK UNBOUND:                -0.419
REMARK SMILES CCc1nc(N)nc(N)c1-c1ccc(Cl)cc1
REMARK SMILES IDX 4 1 7 2 10 3 3 4 8 5 5 6 11 7 14 8 13 9 16 10 12 11 17 12
REMARK SMILES IDX 15 13 2 14 1 15 9 16 6 19
REMARK H PARENT 9 17 9 18 6 20 6 21
ROOT
ATOM      1  N   UNL     1      28.146  12.580  10.287  1.00  0.00    -0.218 NA
ATOM      2  N   UNL     1      27.074  14.554   9.412  1.00  0.00    -0.196 NA
ATOM      3  C   UNL     1      29.156  13.795   8.468  1.00  0.00     0.046 A 
ATOM      4  C   UNL     1      29.129  12.758   9.380  1.00  0.00     0.056 A 
ATOM      5  C   UNL     1      28.090  14.671   8.532  1.00  0.00     0.137 A 
ATOM      6  C   UNL     1      27.164  13.502  10.248  1.00  0.00     0.222 A 
ENDROOT
BRANCH   3   7
ATOM      7  C   UNL     1      30.233  13.943   7.513  1.00  0.00    -0.013 A 
ATOM      8  C   UNL     1      32.311  14.229   5.674  1.00  0.00     0.041 A 
ATOM      9  C   UNL     1      31.183  13.476   5.342  1.00  0.00     0.021 A 
ATOM     10  C   UNL     1      32.399  14.837   6.926  1.00  0.00     0.021 A 
ATOM     11  C   UNL     1      30.145  13.334   6.262  1.00  0.00     0.010 A 
ATOM     12  C   UNL     1      31.360  14.695   7.846  1.00  0.00     0.010 A 
ATOM     13  Cl  UNL     1      33.593  14.402   4.541  1.00  0.00    -0.084 Cl
ENDBRANCH   3   7
BRANCH   4  14
ATOM     14  C   UNL     1      30.222  11.739   9.417  1.00  0.00     0.054 C 
ATOM     15  C   UNL     1      31.199  11.988  10.563  1.00  0.00     0.011 C 
ENDBRANCH   4  14
BRANCH   5  16
ATOM     16  N   UNL     1      28.048  15.761   7.627  1.00  0.00    -0.383 N 
ATOM     17  H   UNL     1      27.277  15.826   6.975  1.00  0.00     0.158 HD
ATOM     18  H   UNL     1      28.942  16.129   7.326  1.00  0.00     0.158 HD
ENDBRANCH   5  16
BRANCH   6  19
ATOM     19  N   UNL     1      26.118  13.348  11.182  1.00  0.00    -0.368 N 
ATOM     20  H   UNL     1      25.848  12.420  11.478  1.00  0.00     0.159 HD
ATOM     21  H   UNL     1      25.650  14.168  11.545  1.00  0.00     0.159 HD
ENDBRANCH   6  19
TORSDOF 4
ENDMDL
MODEL 4
REMARK VINA RESULT:     0.000     11.639     13.369
REMARK INTER + INTRA:          -0.419
REMARK INTER:                   0.000
REMARK INTRA:                  -0.419
REMARK UNBOUND:                -0.419
REMARK SMILES CCc1nc(N)nc(N)c1-c1ccc(Cl)cc1
REMARK SMILES IDX 4 1 7 2 10 3 3 4 8 5 5 6 11 7 14 8 13 9 16 10 12 11 17 12
REMARK SMILES IDX 15 13 2 14 1 15 9 16 6 19
REMARK H PARENT 9 17 9 18 6 20 6 21
ROOT
ATOM      1  N   UNL     1      28.545  20.706   7.323  1.00  0.00    -0.218 NA
ATOM      2  N   UNL     1      29.889  22.597   6.669  1.00  0.00    -0.196 NA
ATOM      3  C   UNL     1      30.265  21.529   8.795  1.00  0.00     0.046 A 
ATOM      4  C   UNL     1      29.243  20.656   8.476  1.00  0.00     0.056 A 
ATOM      5  C   UNL     1      30.546  22.489   7.842  1.00  0.00     0.137 A 
ATOM      6  C   UNL     1      28.914  21.687   6.477  1.00  0.00     0.222 A 
ENDROOT
BRANCH   3   7
ATOM      7  C   UNL     1      30.986  21.435  10.046  1.00  0.00    -0.013 A 
ATOM      8  C   UNL     1      32.375  21.254  12.458  1.00  0.00     0.041 A 
ATOM      9  C   UNL     1      32.826  20.553  11.338  1.00  0.00     0.021 A 
ATOM     10  C   UNL     1      31.230  22.044  12.371  1.00  0.00     0.021 A 
ATOM     11  C   UNL     1      32.131  20.644  10.133  1.00  0.00     0.010 A 
ATOM     12  C   UNL     1      30.534  22.135  11.165  1.00  0.00     0.010 A 
ATOM     13  Cl  UNL     1      33.231  21.139  13.946  1.00  0.00    -0.084 Cl
ENDBRANCH   3   7
BRANCH   4  14
ATOM     14  C   UNL     1      28.838  19.570   9.421  1.00  0.00     0.054 C 
ATOM     15  C   UNL     1      27.560  19.917  10.180  1.00  0.00     0.011 C 
ENDBRANCH   4  14
BRANCH   5  16
ATOM     16  N   UNL     1      31.583  23.421   8.099  1.00  0.00    -0.383 N 
ATOM     17  H   UNL     1      31.912  24.006   7.342  1.00  0.00     0.158 HD
ATOM     18  H   UNL     1      32.255  23.160   8.810  1.00  0.00     0.158 HD
ENDBRANCH   5  16
BRANCH   6  19
ATOM     19  N   UNL     1      28.205  21.770   5.260  1.00  0.00    -0.368 N 
ATOM     20  H   UNL     1      27.315  22.248   5.234  1.00  0.00     0.159 HD
ATOM     21  H   UNL     1      28.596  21.351   4.427  1.00  0.00     0.159 HD
ENDBRANCH   6  19
TORSDOF 4
ENDMDL
MODEL 5
REMARK VINA RESULT:     0.000     11.334     13.183
REMARK INTER + INTRA:          -0.419
REMARK INTER:                   0.000
REMARK INTRA:                  -0.419
REMARK UNBOUND:                -0.419
REMARK SMILES CCc1nc(N)nc(N)c1-c1ccc(Cl)cc1
REMARK SMILES IDX 4 1 7 2 10 3 3 4 8 5 5 6 11 7 14 8 13 9 16 10 12 11 17 12
REMARK SMILES IDX 15 13 2 14 1 15 9 16 6 19
REMARK H PARENT 9 17 9 18 6 20 6 21
ROOT
ATOM      1  N   UNL     1      27.842  20.890   5.981  1.00  0.00    -0.218 NA
ATOM      2  N   UNL     1      29.186  22.830   5.493  1.00  0.00    -0.196 NA
ATOM      3  C   UNL     1      28.796  22.180   7.779  1.00  0.00     0.046 A 
ATOM      4  C   UNL     1      28.045  21.126   7.294  1.00  0.00     0.056 A 
ATOM      5  C   UNL     1      29.348  23.007   6.821  1.00  0.00     0.137 A 
ATOM      6  C   UNL     1      28.432  21.769   5.148  1.00  0.00     0.222 A 
ENDROOT
BRANCH   3   7
ATOM      7  C   UNL     1      28.986  22.392   9.197  1.00  0.00    -0.013 A 
ATOM      8  C   UNL     1      29.349  22.800  11.933  1.00  0.00     0.041 A 
ATOM      9  C   UNL     1      30.248  22.005  11.220  1.00  0.00     0.021 A 
ATOM     10  C   UNL     1      28.269  23.389  11.278  1.00  0.00     0.021 A 
ATOM     11  C   UNL     1      30.065  21.801   9.853  1.00  0.00     0.010 A 
ATOM     12  C   UNL     1      28.086  23.185   9.910  1.00  0.00     0.010 A 
ATOM     13  Cl  UNL     1      29.573  23.049  13.620  1.00  0.00    -0.084 Cl
ENDBRANCH   3   7
BRANCH   4  14
ATOM     14  C   UNL     1      27.392  20.156   8.225  1.00  0.00     0.054 C 
ATOM     15  C   UNL     1      25.898  20.426   8.381  1.00  0.00     0.011 C 
ENDBRANCH   4  14
BRANCH   5  16
ATOM     16  N   UNL     1      30.132  24.110   7.242  1.00  0.00    -0.383 N 
ATOM     17  H   UNL     1      31.140  24.039   7.195  1.00  0.00     0.158 HD
ATOM     18  H   UNL     1      29.741  24.683   7.980  1.00  0.00     0.158 HD
ENDBRANCH   5  16
BRANCH   6  19
ATOM     19  N   UNL     1      28.242  21.553   3.766  1.00  0.00    -0.368 N 
ATOM     20  H   UNL     1      27.322  21.673   3.367  1.00  0.00     0.159 HD
ATOM     21  H   UNL     1      29.029  21.281   3.192  1.00  0.00     0.159 HD
ENDBRANCH   6  19
TORSDOF 4
ENDMDL
MODEL 6
REMARK VINA RESULT:     0.000      9.193     10.917
REMARK INTER + INTRA:          -0.419
REMARK INTER:                   0.000
REMARK INTRA:                  -0.419
REMARK UNBOUND:                -0.419
REMARK SMILES CCc1nc(N)nc(N)c1-c1ccc(Cl)cc1
REMARK SMILES IDX 4 1 7 2 10 3 3 4 8 5 5 6 11 7 14 8 13 9 16 10 12 11 17 12
REMARK SMILES IDX 15 13 2 14 1 15 9 16 6 19
REMARK H PARENT 9 17 9 18 6 20 6 21
ROOT
ATOM      1  N   UNL     1      25.952  13.339  11.418  1.00  0.00    -0.218 NA
ATOM      2  N   UNL     1      25.312  11.701   9.770  1.00  0.00    -0.196 NA
ATOM      3  C   UNL     1      26.997  11.169  11.407  1.00  0.00     0.046 A 
ATOM      4  C   UNL     1      26.824  12.441  11.919  1.00  0.00     0.056 A 
ATOM      5  C   UNL     1      26.205  10.852  10.321  1.00  0.00     0.137 A 
ATOM      6  C   UNL     1      25.239  12.910  10.359  1.00  0.00     0.222 A 
ENDROOT
BRANCH   3   7
ATOM      7  C   UNL     1      27.946  10.239  11.980  1.00  0.00    -0.013 A 
ATOM      8  C   UNL     1      29.778   8.448  13.084  1.00  0.00     0.041 A 
ATOM      9  C   UNL     1      28.463   8.480  13.553  1.00  0.00     0.021 A 
ATOM     10  C   UNL     1      30.175   9.311  12.064  1.00  0.00     0.021 A 
ATOM     11  C   UNL     1      27.549   9.376  13.000  1.00  0.00     0.010 A 
ATOM     12  C   UNL     1      29.260  10.208  11.511  1.00  0.00     0.010 A 
ATOM     13  Cl  UNL     1      30.907   7.345  13.767  1.00  0.00    -0.084 Cl
ENDBRANCH   3   7
BRANCH   4  14
ATOM     14  C   UNL     1      27.620  12.911  13.094  1.00  0.00     0.054 C 
ATOM     15  C   UNL     1      28.766  13.831  12.681  1.00  0.00     0.011 C 
ENDBRANCH   4  14
BRANCH   5  16
ATOM     16  N   UNL     1      26.325   9.564   9.742  1.00  0.00    -0.383 N 
ATOM     17  H   UNL     1      27.224   9.099   9.766  1.00  0.00     0.158 HD
ATOM     18  H   UNL     1      25.723   9.369   8.952  1.00  0.00     0.158 HD
ENDBRANCH   5  16
BRANCH   6  19
ATOM     19  N   UNL     1      24.315  13.824   9.808  1.00  0.00    -0.368 N 
ATOM     20  H   UNL     1      24.441  14.814   9.967  1.00  0.00     0.159 HD
ATOM     21  H   UNL     1      23.539  13.478   9.261  1.00  0.00     0.159 HD
ENDBRANCH   6  19
TORSDOF 4
ENDMDL
MODEL 7
REMARK VINA RESULT:     0.002      7.318      9.382
REMARK INTER + INTRA:          -0.417
REMARK INTER:                   0.000
REMARK INTRA:                  -0.417
REMARK UNBOUND:                -0.419
REMARK SMILES CCc1nc(N)nc(N)c1-c1ccc(Cl)cc1
REMARK SMILES IDX 4 1 7 2 10 3 3 4 8 5 5 6 11 7 14 8 13 9 16 10 12 11 17 12
REMARK SMILES IDX 15 13 2 14 1 15 9 16 6 19
REMARK H PARENT 9 17 9 18 6 20 6 21
ROOT
ATOM      1  N   UNL     1      37.383  13.285   0.986  1.00  0.00    -0.218 NA
ATOM      2  N   UNL     1      35.715  14.787   0.108  1.00  0.00    -0.196 NA
ATOM      3  C   UNL     1      35.461  12.408  -0.171  1.00  0.00     0.046 A 
ATOM      4  C   UNL     1      36.654  12.255   0.509  1.00  0.00     0.056 A 
ATOM      5  C   UNL     1      35.037  13.710  -0.343  1.00  0.00     0.137 A 
ATOM      6  C   UNL     1      36.864  14.506   0.753  1.00  0.00     0.222 A 
ENDROOT
BRANCH   3   7
ATOM      7  C   UNL     1      34.714  11.271  -0.664  1.00  0.00    -0.013 A 
ATOM      8  C   UNL     1      33.275   9.079  -1.615  1.00  0.00     0.041 A 
ATOM      9  C   UNL     1      33.032   9.569  -0.332  1.00  0.00     0.021 A 
ATOM     10  C   UNL     1      34.238   9.684  -2.422  1.00  0.00     0.021 A 
ATOM     11  C   UNL     1      33.752  10.665   0.143  1.00  0.00     0.010 A 
ATOM     12  C   UNL     1      34.958  10.780  -1.947  1.00  0.00     0.010 A 
ATOM     13  Cl  UNL     1      32.389   7.725  -2.201  1.00  0.00    -0.084 Cl
ENDBRANCH   3   7
BRANCH   4  14
ATOM     14  C   UNL     1      37.226  10.897   0.762  1.00  0.00     0.054 C 
ATOM     15  C   UNL     1      38.367  10.567  -0.196  1.00  0.00     0.011 C 
ENDBRANCH   4  14
BRANCH   5  16
ATOM     16  N   UNL     1      33.820  13.946  -1.031  1.00  0.00    -0.383 N 
ATOM     17  H   UNL     1      32.994  13.432  -0.753  1.00  0.00     0.158 HD
ATOM     18  H   UNL     1      33.899  14.206  -2.006  1.00  0.00     0.158 HD
ENDBRANCH   5  16
BRANCH   6  19
ATOM     19  N   UNL     1      37.599  15.608   1.239  1.00  0.00    -0.368 N 
ATOM     20  H   UNL     1      37.723  16.420   0.651  1.00  0.00     0.159 HD
ATOM     21  H   UNL     1      37.993  15.572   2.169  1.00  0.00     0.159 HD
ENDBRANCH   6  19
TORSDOF 4
ENDMDL
MODEL 8
REMARK VINA RESULT:     0.002      7.850      9.334
REMARK INTER + INTRA:          -0.417
REMARK INTER:                   0.000
REMARK INTRA:                  -0.417
REMARK UNBOUND:                -0.419
REMARK SMILES CCc1nc(N)nc(N)c1-c1ccc(Cl)cc1
REMARK SMILES IDX 4 1 7 2 10 3 3 4 8 5 5 6 11 7 14 8 13 9 16 10 12 11 17 12
REMARK SMILES IDX 15 13 2 14 1 15 9 16 6 19
REMARK H PARENT 9 17 9 18 6 20 6 21
ROOT
ATOM      1  N   UNL     1      29.133  20.440   4.877  1.00  0.00    -0.218 NA
ATOM      2  N   UNL     1      31.018  20.298   6.371  1.00  0.00    -0.196 NA
ATOM      3  C   UNL     1      31.014  19.044   4.315  1.00  0.00     0.046 A 
ATOM      4  C   UNL     1      29.769  19.581   4.053  1.00  0.00     0.056 A 
ATOM      5  C   UNL     1      31.597  19.443   5.501  1.00  0.00     0.137 A 
ATOM      6  C   UNL     1      29.805  20.750   6.002  1.00  0.00     0.222 A 
ENDROOT
BRANCH   3   7
ATOM      7  C   UNL     1      31.657  18.125   3.400  1.00  0.00    -0.013 A 
ATOM      8  C   UNL     1      32.893  16.354   1.634  1.00  0.00     0.041 A 
ATOM      9  C   UNL     1      33.104  17.728   1.507  1.00  0.00     0.021 A 
ATOM     10  C   UNL     1      32.063  15.867   2.643  1.00  0.00     0.021 A 
ATOM     11  C   UNL     1      32.486  18.613   2.390  1.00  0.00     0.010 A 
ATOM     12  C   UNL     1      31.444  16.752   3.526  1.00  0.00     0.010 A 
ATOM     13  Cl  UNL     1      33.654  15.263   0.544  1.00  0.00    -0.084 Cl
ENDBRANCH   3   7
BRANCH   4  14
ATOM     14  C   UNL     1      29.028  19.230   2.802  1.00  0.00     0.054 C 
ATOM     15  C   UNL     1      27.923  18.208   3.057  1.00  0.00     0.011 C 
ENDBRANCH   4  14
BRANCH   5  16
ATOM     16  N   UNL     1      32.876  18.934   5.838  1.00  0.00    -0.383 N 
ATOM     17  H   UNL     1      33.391  18.407   5.145  1.00  0.00     0.158 HD
ATOM     18  H   UNL     1      33.018  18.685   6.810  1.00  0.00     0.158 HD
ENDBRANCH   5  16
BRANCH   6  19
ATOM     19  N   UNL     1      29.171  21.647   6.888  1.00  0.00    -0.368 N 
ATOM     20  H   UNL     1      28.652  22.430   6.515  1.00  0.00     0.159 HD
ATOM     21  H   UNL     1      29.242  21.496   7.885  1.00  0.00     0.159 HD
ENDBRANCH   6  19
TORSDOF 4
ENDMDL
MODEL 9
REMARK VINA RESULT:     0.002      7.696      9.799
REMARK INTER + INTRA:          -0.417
REMARK INTER:                   0.000
REMARK INTRA:                  -0.417
REMARK UNBOUND:                -0.419
REMARK SMILES CCc1nc(N)nc(N)c1-c1ccc(Cl)cc1
REMARK SMILES IDX 4 1 7 2 10 3 3 4 8 5 5 6 11 7 14 8 13 9 16 10 12 11 17 12
REMARK SMILES IDX 15 13 2 14 1 15 9 16 6 19
REMARK H PARENT 9 17 9 18 6 20 6 21
ROOT
ATOM      1  N   UNL     1      28.679  21.874   4.691  1.00  0.00    -0.218 NA
ATOM      2  N   UNL     1      30.851  21.129   5.422  1.00  0.00    -0.196 NA
ATOM      3  C   UNL     1      29.869  20.205   3.426  1.00  0.00     0.046 A 
ATOM      4  C   UNL     1      28.780  21.025   3.647  1.00  0.00     0.056 A 
ATOM      5  C   UNL     1      30.885  20.302   4.356  1.00  0.00     0.137 A 
ATOM      6  C   UNL     1      29.734  21.875   5.527  1.00  0.00     0.222 A 
ENDROOT
BRANCH   3   7
ATOM      7  C   UNL     1      29.932  19.310   2.291  1.00  0.00    -0.013 A 
ATOM      8  C   UNL     1      30.051  17.583   0.104  1.00  0.00     0.041 A 
ATOM      9  C   UNL     1      30.541  18.885  -0.007  1.00  0.00     0.021 A 
ATOM     10  C   UNL     1      29.501  17.146   1.308  1.00  0.00     0.021 A 
ATOM     11  C   UNL     1      30.481  19.747   1.087  1.00  0.00     0.010 A 
ATOM     12  C   UNL     1      29.441  18.009   2.402  1.00  0.00     0.010 A 
ATOM     13  Cl  UNL     1      30.122  16.519  -1.247  1.00  0.00    -0.084 Cl
ENDBRANCH   3   7
BRANCH   4  14
ATOM     14  C   UNL     1      27.611  21.017   2.715  1.00  0.00     0.054 C 
ATOM     15  C   UNL     1      26.433  20.227   3.278  1.00  0.00     0.011 C 
ENDBRANCH   4  14
BRANCH   5  16
ATOM     16  N   UNL     1      32.037  19.492   4.195  1.00  0.00    -0.383 N 
ATOM     17  H   UNL     1      32.152  18.971   3.335  1.00  0.00     0.158 HD
ATOM     18  H   UNL     1      32.421  19.085   5.039  1.00  0.00     0.158 HD
ENDBRANCH   5  16
BRANCH   6  19
ATOM     19  N   UNL     1      29.664  22.752   6.630  1.00  0.00    -0.368 N 
ATOM     20  H   UNL     1      29.799  22.389   7.564  1.00  0.00     0.159 HD
ATOM     21  H   UNL     1      29.480  23.734   6.475  1.00  0.00     0.159 HD
ENDBRANCH   6  19
TORSDOF 4
ENDMDL
